#ident	"@(#)Systems	1.3"
#ident "$Header$"
#
# Entries have this format:
#
#	Machine-Name Time Type Class Phone Login
#
# Machine-Name		node name of the remote machine
# Time			day-of-week and time-of-day when you may call
#			(e.g., MoTuTh0800-1700). Use "Any" for any day.
#			Use "Never" for machines that poll you, but that
#			you never call directly.
# Type			device type
# Class			transfer speed
# Phone			phone number (for autodialers) or token (for
#			data switches) or network adress (for networks)
# Login			login sequence is composed of fields and subfields
#			in the format "[expect send] ...".  The expect field
#			may have subfields in the format "expect[-send-expect]".
#
# 	Example 1:
#		This entry is used for "uucico" to connect to "sysname"
#		using a Hayes modem.
#
#		sysname Any ACU 9600 HayesSmartm2400 in:--in: nuucp word: hello1
#
# 	Example 2:
#		This entry should be used for "cu" going over
#		the TCP network. It causes the Connection Server
#		to connect to the "cu" service through the "listen"
#		service. The corresponding "CS - - - CS" entry
#		should be entered in the Devices file.
#
#		sysname Any CS - -,listen:cu
#
# 	Example 3:
#		This entry should be used for "uucico" going over
#		the TCP network.  It causes the Connection Server
#		to connect to the "10103" service through the "listen" 
#		service. The "10103" service invokes uucico. The 
#		corresponding "CS - - - CS" entry should be entered 
#		in the Devices file.
#
#		sysname Any CS - -,listen:10103
#
#
# The following entry is for the Santa Cruz Operation Technical Support
# bulletin board.  To request a list of files available, execute this
# command from a '#' prompt:
#
#		uucp sosco!/usr/spool/uucppublic/SLS/info /tmp/info
#
# This command will transfer a list of the available Support Level
# Supplements into the file '/tmp/info' on your system. 

sosco Any ACU 2400-9600 14084253502 -\r\d-ogin:-\K\d-ogin:-\K\d-ogin: uusls

# The following entry is for the Santa Cruz Operation Technical Support
# bulletin board in Europe. To request a list of the files available,
# execute this command from a '#' prompt:
#
#       uucp scolon!/usr/spool/uucppublic/SLS/info /tmp/info
#
# If you are dialing from outside the UK, change the phone number below
# from 01923210911 to begin with your international dialing code and then
# follow with 441923210911. If you have a 9600 baud modem, we have a 9600
# baud line available at 01923222681 if dialing from within the UK or
# your international dialing code and then 441923222681 from outside the UK.

scolon Any  ACU 300-2400 01923210911 -\r\d-ogin:-\K\d-ogin:-\K\d-ogin: uusls ssword: bbsuucp
